variables= "x","y","z"
zone t= "1",i=25,j=25
0 0 1
0.2 0 1.3
0.4 0 1.6
0.6 0 1.1
1 0 1
0.2 0.2 1.2
0.4 0.2 1.2
0.6 0.2 1.5
0.7 0.2 1.1
1 0.2 1.3
0.2 0.5 1.2
0.4 0.5 1.3
0.5 0.5 1.5
0.7 0.5 1.5
1 0.5 1.1
0 0.65 1.5
0.2 0.65 1.5
0.5 0.7 1.3
1 0.7 1.1
0.2 0.8 1.3
0.5 0.8 1.1
0 1 1.5
0.2 1 1.6
0.5 1 1.2
1 1 1.1
