variables= "x","y","z"
zone t= "1",i=21,j=21
0 0 1
0 0.0169 1.013
0 0.0352083 1.02708
0 0.0551087 1.04239
0 0.0768182 1.05909
0 0.100595 1.07738
0 0.12675 1.0975
0 0.155658 1.11974
0 0.187778 1.14444
0 0.223676 1.17206
0 0.264063 1.20312
0 0.309833 1.23833
0 0.362143 1.27857
0 0.4225 1.325
0 0.481579 1.36931
0 0.539214 1.40596
0 0.606438 1.43753
0 0.689245 1.46401
0 0.787643 1.48403
0 0.894957 1.49615
0 0.825 1.5
0.0097561 0 1.01463
0.0462486 0.0126653 1.0765
0.0419217 0.0272735 1.07823
0.036876 0.0443088 1.08025
0.030916 0.0644309 1.08263
0.0253792 0.0866533 1.08809
0.0213836 0.110679 1.09837
0.0185027 0.137586 1.11278
0.0164643 0.168099 1.13109
0.015097 0.202941 1.15342
0.0142957 0.242971 1.18015
0.0134138 0.287765 1.21185
0.0117172 0.337934 1.2502
0.00896087 0.396704 1.29803
0.00612917 0.4574 1.34728
0.00445565 0.51929 1.38957
0.00415043 0.591765 1.42536
0.0045489 0.679568 1.45476
0.00490456 0.782605 1.47826
0.0053318 0.893535 1.49451
0.00588235 0.827206 1.49853
0.0235294 0 1.03529
0.0877465 0.011835 1.13576
0.0815705 0.0261371 1.13151
0.0739573 0.0437673 1.12626
0.0643392 0.0660403 1.11963
0.0547249 0.0908236 1.11607
0.0473318 0.116945 1.11925
0.0417413 0.146121 1.12807
0.0376415 0.179245 1.14196
0.0348143 0.217012 1.16073
0.0331153 0.260136 1.18446
0.0312249 0.306059 1.21331
0.027563 0.354012 1.24939
0.0214609 0.40814 1.29688
0.0149576 0.46512 1.34818
0.0109902 0.525583 1.39227
0.0102441 0.597191 1.42694
0.0111786 0.683223 1.45325
0.0120078 0.784343 1.47545
0.0130041 0.893963 1.49351
0.0142857 0.830357 1.49643
0.0444444 0 1.06667
0.12519 0.0110859 1.18923
0.119126 0.0250606 1.18197
0.111246 0.0432227 1.17252
0.100588 0.0677858 1.15975
0.0890459 0.095701 1.14881
0.0794809 0.124709 1.14513
0.0718011 0.157161 1.14784
0.0658932 0.194115 1.15645
0.0616561 0.236169 1.17069
0.0590097 0.283754 1.1904
0.0560192 0.331527 1.21533
0.0501864 0.376967 1.24823
0.040113 0.425205 1.29516
0.0287719 0.4772 1.34959
0.0215015 0.535704 1.3966
0.0200631 0.605934 1.42949
0.0217401 0.689047 1.45083
0.0232155 0.787085 1.47102
0.0249912 0.894631 1.49195
0.0272727 0.835227 1.49318
0.08 0 1.12
0.159145 0.0104065 1.23773
0.15475 0.0240395 1.22983
0.148743 0.0426751 1.21904
0.140035 0.0696852 1.20341
0.129725 0.101482 1.1876
0.120355 0.13458 1.17802
0.112202 0.171999 1.17441
0.105475 0.214947 1.17677
0.100335 0.263773 1.18504
0.0968921 0.318306 1.19908
0.0929053 0.369415 1.21835
0.0851186 0.412411 1.24644
0.0709408 0.453409 1.29232
0.0534576 0.498788 1.35212
0.0412073 0.554679 1.40473
0.0385272 0.622374 1.43429
0.0412059 0.699781 1.44639
0.0435302 0.792055 1.463
0.0463571 0.895822 1.48917
0.05 0.84375 1.4875
0.125105 0 1.18766
0.182252 0.00997114 1.27069
0.179781 0.0233611 1.26337
0.176287 0.0422918 1.25302
0.170969 0.0710999 1.23727
0.164195 0.10612 1.21992
0.157471 0.142967 1.20722
0.151082 0.185225 1.19929
0.145322 0.234286 1.19657
0.140476 0.290236 1.19942
0.13679 0.352188 1.20799
0.132474 0.407643 1.22168
0.124507 0.450283 1.24499
0.109611 0.486896 1.28986
0.0895346 0.527909 1.35621
0.073852 0.582141 1.416
0.069541 0.645919 1.43982
0.0720567 0.714506 1.43842
0.0743441 0.798562 1.45036
0.0776244 0.897297 1.48455
0.0822551 0.855638 1.47902
0.167742 0 1.25161
0.199743 0.0097865 1.2955
0.198588 0.0230824 1.28817
0.196929 0.0421876 1.27765
0.194341 0.071974 1.26124
0.190853 0.108753 1.24241
0.187084 0.147523 1.22748
0.183157 0.192212 1.2166
0.179229 0.244497 1.21042
0.175486 0.304572 1.20967
0.172132 0.371362 1.21484
0.168293 0.430684 1.22527
0.162181 0.475205 1.24591
0.151432 0.511819 1.29039
0.136772 0.552249 1.36
0.123806 0.605175 1.4215
0.116689 0.663928 1.43751
0.114045 0.724511 1.42415
0.112721 0.802149 1.43285
0.114081 0.897847 1.47623
0.118334 0.867803 1.46727
0.210555 0 1.31583
0.22107 0.0097658 1.32557
0.220903 0.0230946 1.31708
0.220661 0.0423712 1.3048
0.220281 0.0727205 1.28547
0.219639 0.110243 1.26288
0.21871 0.149263 1.24432
0.217505 0.193826 1.22994
0.216031 0.245982 1.22055
0.214304 0.306515 1.21721
0.212367 0.375049 1.22093
0.210275 0.437441 1.23054
0.207833 0.485258 1.25072
0.204516 0.524207 1.29506
0.20034 0.564613 1.36114
0.19376 0.613414 1.41379
0.182123 0.666448 1.42094
0.169443 0.723438 1.40079
0.160521 0.79959 1.40837
0.157103 0.896582 1.46136
0.159391 0.879665 1.44994
0.254545 0 1.38182
0.254942 0.00993314 1.37315
0.255482 0.023464 1.36135
0.256261 0.0429793 1.34433
0.257483 0.0735767 1.31764
0.258985 0.110778 1.2865
0.260502 0.147944 1.26088
0.26217 0.188892 1.24089
0.264072 0.236019 1.22751
0.266274 0.291147 1.2223
0.268824 0.355771 1.22718
0.271627 0.419111 1.23973
0.274025 0.472241 1.26259
0.275135 0.51695 1.30554
0.274331 0.557921 1.35772
0.26834 0.600357 1.39134
0.2524 0.648135 1.39071
0.231673 0.706882 1.36981
0.214893 0.788138 1.37733
0.20539 0.892655 1.43794
0.204564 0.890041 1.42552
0.302872 0 1.45108
0.303439 0.0101554 1.43857
0.304208 0.0239231 1.4216
0.30531 0.0436471 1.39729
0.30702 0.0742601 1.35956
0.309267 0.110619 1.31599
0.31205 0.145094 1.28058
0.315842 0.181042 1.25323
0.321096 0.220851 1.23503
0.328364 0.266903 1.22806
0.338414 0.322174 1.23569
0.34881 0.382497 1.2538
0.352434 0.442764 1.28019
0.344402 0.499207 1.31806
0.331676 0.546159 1.35332
0.319242 0.586894 1.37114
0.302327 0.631611 1.36452
0.282378 0.691401 1.34175
0.264909 0.777255 1.34574
0.253616 0.88894 1.40692
0.250781 0.897332 1.39388
0.356485 0 1.50795
0.357019 0.0101386 1.49316
0.357743 0.0238744 1.47313
0.358778 0.043535 1.44446
0.360383 0.0740077 1.40002
0.362488 0.110031 1.3487
0.365144 0.143619 1.3071
0.368856 0.177821 1.27523
0.374109 0.214781 1.25438
0.381513 0.256642 1.24705
0.391942 0.306126 1.25743
0.401785 0.361974 1.2791
0.400646 0.424408 1.30471
0.382473 0.489996 1.33458
0.360212 0.546459 1.35729
0.343374 0.592381 1.36487
0.327835 0.63812 1.35135
0.313425 0.696854 1.32195
0.302002 0.780958 1.31833
0.295092 0.890266 1.37124
0.293103 0.9 1.3569
0.408736 0 1.52324
0.409557 0.00964171 1.51044
0.410676 0.0227852 1.49298
0.412292 0.0417615 1.46778
0.414829 0.0715605 1.4282
0.417858 0.10749 1.38163
0.42067 0.141817 1.34335
0.423482 0.177434 1.31406
0.426421 0.216215 1.29556
0.429583 0.259785 1.29055
0.433064 0.309872 1.30289
0.434788 0.363748 1.3244
0.427457 0.423834 1.34491
0.405497 0.492031 1.36394
0.379429 0.557437 1.37244
0.35968 0.612221 1.36702
0.345856 0.660691 1.34308
0.337555 0.715947 1.30467
0.333015 0.793516 1.29308
0.331269 0.894474 1.33527
0.33092 0.899898 1.32
0.45 0 1.475
0.452021 0.00849741 1.46953
0.454815 0.0202469 1.46198
0.458931 0.0375573 1.45084
0.4656 0.0656 1.4328
0.473665 0.100937 1.41065
0.48039 0.136565 1.39187
0.485515 0.175315 1.37756
0.48855 0.218832 1.36938
0.488845 0.26811 1.36936
0.485644 0.323569 1.37984
0.479404 0.379994 1.39452
0.465964 0.439865 1.4043
0.439682 0.507819 1.40657
0.410014 0.57625 1.39417
0.387892 0.635142 1.36983
0.375399 0.683249 1.33276
0.371403 0.733326 1.28592
0.370836 0.804053 1.26771
0.371365 0.897823 1.30084
0.371212 0.899242 1.28561
0.483586 0 1.39465
0.486812 0.00735894 1.39657
0.491335 0.0176796 1.39926
0.498138 0.0332004 1.40332
0.509524 0.0591751 1.4101
0.523995 0.0934872 1.41887
0.536662 0.13024 1.4275
0.546568 0.172521 1.43629
0.552252 0.221934 1.44513
0.551956 0.27875 1.45368
0.543963 0.341624 1.46132
0.531706 0.402459 1.46646
0.514235 0.462993 1.46393
0.485855 0.52869 1.44841
0.455724 0.595073 1.41418
0.434076 0.652628 1.37038
0.422574 0.697986 1.32096
0.419833 0.743942 1.26731
0.419775 0.810288 1.24317
0.419755 0.899791 1.26772
0.418294 0.897613 1.25318
0.523529 0 1.31765
0.526654 0.00688468 1.32196
0.531061 0.0165975 1.32804
0.537747 0.0313316 1.33726
0.549095 0.056338 1.35292
0.563846 0.0900892 1.37367
0.577107 0.127329 1.39452
0.587745 0.171373 1.41577
0.594036 0.223816 1.43677
0.593933 0.284414 1.45605
0.5856 0.350598 1.47154
0.57345 0.41289 1.48158
0.558032 0.472586 1.48062
0.534291 0.535263 1.4614
0.509892 0.598202 1.41816
0.493192 0.652418 1.36539
0.484165 0.696371 1.31009
0.48163 0.743071 1.25183
0.480559 0.81032 1.22128
0.478598 0.899968 1.2364
0.47483 0.894718 1.2227
0.574683 0 1.24496
0.576903 0.00687239 1.24879
0.580037 0.0165694 1.25419
0.584791 0.0312827 1.26238
0.592863 0.0562632 1.27629
0.603353 0.089987 1.29499
0.612741 0.12717 1.3152
0.620179 0.171106 1.3384
0.624402 0.223402 1.36514
0.623914 0.28386 1.39505
0.617367 0.349982 1.42663
0.608244 0.412475 1.45346
0.597057 0.471836 1.46482
0.579938 0.532682 1.45206
0.562836 0.592334 1.40921
0.55279 0.642606 1.3554
0.549486 0.686173 1.29902
0.550656 0.736356 1.23819
0.550914 0.807317 1.20173
0.548105 0.899295 1.20727
0.542042 0.89039 1.19444
0.63913 0 1.17826
0.640541 0.00702222 1.18181
0.642528 0.0169121 1.18681
0.645534 0.0318769 1.19437
0.650616 0.057171 1.20715
0.657155 0.0910426 1.22439
0.662846 0.127886 1.24383
0.667089 0.170891 1.26768
0.669035 0.221763 1.29739
0.66768 0.28073 1.33356
0.662083 0.346102 1.37564
0.654832 0.409281 1.41448
0.646392 0.469504 1.43559
0.633945 0.529871 1.4291
0.621847 0.587034 1.38887
0.616801 0.634076 1.33663
0.619857 0.67757 1.28144
0.626769 0.730966 1.22124
0.630072 0.805168 1.18225
0.627607 0.898896 1.18032
0.619829 0.884593 1.16883
0.716575 0 1.11934
0.717354 0.00728262 1.12343
0.718448 0.017506 1.12917
0.720095 0.0329018 1.13781
0.722858 0.0587251 1.15231
0.726353 0.092857 1.17155
0.729242 0.129256 1.19247
0.731131 0.171002 1.21713
0.7315 0.219922 1.24689
0.729731 0.276787 1.28252
0.725199 0.340999 1.32396
0.719604 0.404894 1.3632
0.713096 0.466236 1.38652
0.703557 0.526463 1.38411
0.693722 0.581444 1.35009
0.690981 0.626078 1.30414
0.69882 0.670144 1.25411
0.710734 0.726735 1.1993
0.716924 0.803808 1.16234
0.715364 0.898754 1.15587
0.706925 0.877419 1.14631
0.804846 0 1.0696
0.805187 0.00760712 1.07536
0.805665 0.0182429 1.0834
0.80638 0.0341655 1.09545
0.807568 0.0606208 1.11546
0.809038 0.0950631 1.14125
0.810166 0.13104 1.16679
0.810744 0.171565 1.19317
0.810509 0.218586 1.22065
0.809145 0.273362 1.24891
0.806305 0.336332 1.277
0.802784 0.400685 1.30179
0.798132 0.462687 1.31634
0.790624 0.522353 1.31351
0.781422 0.575108 1.28893
0.77868 0.618169 1.25483
0.788213 0.663628 1.21517
0.801986 0.723526 1.17165
0.809324 0.803154 1.14187
0.808726 0.898842 1.13422
0.801163 0.869068 1.12722
0.900589 0 1.02982
0.900674 0.00795614 1.03841
0.900793 0.0190316 1.05036
0.900969 0.0355082 1.06814
0.90126 0.0626106 1.09739
0.901611 0.0973676 1.13406
0.901857 0.133019 1.16718
0.901937 0.172586 1.19629
0.901774 0.218126 1.21979
0.901279 0.27126 1.23517
0.900342 0.333221 1.23896
0.899063 0.397693 1.23526
0.896642 0.459475 1.22936
0.891832 0.517679 1.21942
0.884581 0.567868 1.20471
0.881568 0.610096 1.18697
0.888681 0.657843 1.16382
0.899063 0.721216 1.13835
0.904598 0.803106 1.12099
0.904615 0.899123 1.11558
0.899821 0.859822 1.11179
0.8 0 1.05
0.802075 0.00829876 1.05622
0.80495 0.019802 1.06485
0.809202 0.0368098 1.07761
0.816129 0.0645161 1.09839
0.824702 0.0995663 1.12436
0.832381 0.135029 1.14898
0.839133 0.173997 1.17322
0.844677 0.218631 1.19734
0.848528 0.270781 1.22114
0.85 0.332168 1.24406
0.848934 0.396961 1.26472
0.841543 0.460223 1.27937
0.822668 0.520624 1.28305
0.791076 0.572521 1.2728
0.765752 0.613051 1.25392
0.761211 0.656278 1.22108
0.765415 0.715994 1.17626
0.764961 0.797805 1.14306
0.759337 0.89703 1.13371
0.75 0.875 1.125
